% Model:              Al_250_328_295.mph
% Version:            COMSOL 5.6.0.341
% Date:               Dec 13 2021, 00:41
% Dimension:          3
% Nodes:              50
% Expressions:        401
% Description:        温度
% Length unit:        m
% X                       Y                        Z                        T (K) @ t=0              T (K) @ t=5              T (K) @ t=10             T (K) @ t=15             T (K) @ t=20             T (K) @ t=25             T (K) @ t=30             T (K) @ t=35             T (K) @ t=40             T (K) @ t=45             T (K) @ t=50             T (K) @ t=55             T (K) @ t=60             T (K) @ t=65             T (K) @ t=70             T (K) @ t=75             T (K) @ t=80             T (K) @ t=85             T (K) @ t=90             T (K) @ t=95             T (K) @ t=100            T (K) @ t=105            T (K) @ t=110            T (K) @ t=115            T (K) @ t=120            T (K) @ t=125            T (K) @ t=130            T (K) @ t=135            T (K) @ t=140            T (K) @ t=145            T (K) @ t=150            T (K) @ t=155            T (K) @ t=160            T (K) @ t=165            T (K) @ t=170            T (K) @ t=175            T (K) @ t=180            T (K) @ t=185            T (K) @ t=190            T (K) @ t=195            T (K) @ t=200            T (K) @ t=205            T (K) @ t=210            T (K) @ t=215            T (K) @ t=220            T (K) @ t=225            T (K) @ t=230            T (K) @ t=235            T (K) @ t=240            T (K) @ t=245            T (K) @ t=250            T (K) @ t=255            T (K) @ t=260            T (K) @ t=265            T (K) @ t=270            T (K) @ t=275            T (K) @ t=280            T (K) @ t=285            T (K) @ t=290            T (K) @ t=295            T (K) @ t=300            T (K) @ t=305            T (K) @ t=310            T (K) @ t=315            T (K) @ t=320            T (K) @ t=325            T (K) @ t=330            T (K) @ t=335            T (K) @ t=340            T (K) @ t=345            T (K) @ t=350            T (K) @ t=355            T (K) @ t=360            T (K) @ t=365            T (K) @ t=370            T (K) @ t=375            T (K) @ t=380            T (K) @ t=385            T (K) @ t=390            T (K) @ t=395            T (K) @ t=400            T (K) @ t=405            T (K) @ t=410            T (K) @ t=415            T (K) @ t=420            T (K) @ t=425            T (K) @ t=430            T (K) @ t=435            T (K) @ t=440            T (K) @ t=445            T (K) @ t=450            T (K) @ t=455            T (K) @ t=460            T (K) @ t=465            T (K) @ t=470            T (K) @ t=475            T (K) @ t=480            T (K) @ t=485            T (K) @ t=490            T (K) @ t=495            T (K) @ t=500            T (K) @ t=505            T (K) @ t=510            T (K) @ t=515            T (K) @ t=520            T (K) @ t=525            T (K) @ t=530            T (K) @ t=535            T (K) @ t=540            T (K) @ t=545            T (K) @ t=550            T (K) @ t=555            T (K) @ t=560            T (K) @ t=565            T (K) @ t=570            T (K) @ t=575            T (K) @ t=580            T (K) @ t=585            T (K) @ t=590            T (K) @ t=595            T (K) @ t=600            T (K) @ t=605            T (K) @ t=610            T (K) @ t=615            T (K) @ t=620            T (K) @ t=625            T (K) @ t=630            T (K) @ t=635            T (K) @ t=640            T (K) @ t=645            T (K) @ t=650            T (K) @ t=655            T (K) @ t=660            T (K) @ t=665            T (K) @ t=670            T (K) @ t=675            T (K) @ t=680            T (K) @ t=685            T (K) @ t=690            T (K) @ t=695            T (K) @ t=700            T (K) @ t=705            T (K) @ t=710            T (K) @ t=715            T (K) @ t=720            T (K) @ t=725            T (K) @ t=730            T (K) @ t=735            T (K) @ t=740            T (K) @ t=745            T (K) @ t=750            T (K) @ t=755            T (K) @ t=760            T (K) @ t=765            T (K) @ t=770            T (K) @ t=775            T (K) @ t=780            T (K) @ t=785            T (K) @ t=790            T (K) @ t=795            T (K) @ t=800            T (K) @ t=805            T (K) @ t=810            T (K) @ t=815            T (K) @ t=820            T (K) @ t=825            T (K) @ t=830            T (K) @ t=835            T (K) @ t=840            T (K) @ t=845            T (K) @ t=850            T (K) @ t=855            T (K) @ t=860            T (K) @ t=865            T (K) @ t=870            T (K) @ t=875            T (K) @ t=880            T (K) @ t=885            T (K) @ t=890            T (K) @ t=895            T (K) @ t=900            T (K) @ t=905            T (K) @ t=910            T (K) @ t=915            T (K) @ t=920            T (K) @ t=925            T (K) @ t=930            T (K) @ t=935            T (K) @ t=940            T (K) @ t=945            T (K) @ t=950            T (K) @ t=955            T (K) @ t=960            T (K) @ t=965            T (K) @ t=970            T (K) @ t=975            T (K) @ t=980            T (K) @ t=985            T (K) @ t=990            T (K) @ t=995            T (K) @ t=1000           T (K) @ t=1005           T (K) @ t=1010           T (K) @ t=1015           T (K) @ t=1020           T (K) @ t=1025           T (K) @ t=1030           T (K) @ t=1035           T (K) @ t=1040           T (K) @ t=1045           T (K) @ t=1050           T (K) @ t=1055           T (K) @ t=1060           T (K) @ t=1065           T (K) @ t=1070           T (K) @ t=1075           T (K) @ t=1080           T (K) @ t=1085           T (K) @ t=1090           T (K) @ t=1095           T (K) @ t=1100           T (K) @ t=1105           T (K) @ t=1110           T (K) @ t=1115           T (K) @ t=1120           T (K) @ t=1125           T (K) @ t=1130           T (K) @ t=1135           T (K) @ t=1140           T (K) @ t=1145           T (K) @ t=1150           T (K) @ t=1155           T (K) @ t=1160           T (K) @ t=1165           T (K) @ t=1170           T (K) @ t=1175           T (K) @ t=1180           T (K) @ t=1185           T (K) @ t=1190           T (K) @ t=1195           T (K) @ t=1200           T (K) @ t=1205           T (K) @ t=1210           T (K) @ t=1215           T (K) @ t=1220           T (K) @ t=1225           T (K) @ t=1230           T (K) @ t=1235           T (K) @ t=1240           T (K) @ t=1245           T (K) @ t=1250           T (K) @ t=1255           T (K) @ t=1260           T (K) @ t=1265           T (K) @ t=1270           T (K) @ t=1275           T (K) @ t=1280           T (K) @ t=1285           T (K) @ t=1290           T (K) @ t=1295           T (K) @ t=1300           T (K) @ t=1305           T (K) @ t=1310           T (K) @ t=1315           T (K) @ t=1320           T (K) @ t=1325           T (K) @ t=1330           T (K) @ t=1335           T (K) @ t=1340           T (K) @ t=1345           T (K) @ t=1350           T (K) @ t=1355           T (K) @ t=1360           T (K) @ t=1365           T (K) @ t=1370           T (K) @ t=1375           T (K) @ t=1380           T (K) @ t=1385           T (K) @ t=1390           T (K) @ t=1395           T (K) @ t=1400           T (K) @ t=1405           T (K) @ t=1410           T (K) @ t=1415           T (K) @ t=1420           T (K) @ t=1425           T (K) @ t=1430           T (K) @ t=1435           T (K) @ t=1440           T (K) @ t=1445           T (K) @ t=1450           T (K) @ t=1455           T (K) @ t=1460           T (K) @ t=1465           T (K) @ t=1470           T (K) @ t=1475           T (K) @ t=1480           T (K) @ t=1485           T (K) @ t=1490           T (K) @ t=1495           T (K) @ t=1500           T (K) @ t=1505           T (K) @ t=1510           T (K) @ t=1515           T (K) @ t=1520           T (K) @ t=1525           T (K) @ t=1530           T (K) @ t=1535           T (K) @ t=1540           T (K) @ t=1545           T (K) @ t=1550           T (K) @ t=1555           T (K) @ t=1560           T (K) @ t=1565           T (K) @ t=1570           T (K) @ t=1575           T (K) @ t=1580           T (K) @ t=1585           T (K) @ t=1590           T (K) @ t=1595           T (K) @ t=1600           T (K) @ t=1605           T (K) @ t=1610           T (K) @ t=1615           T (K) @ t=1620           T (K) @ t=1625           T (K) @ t=1630           T (K) @ t=1635           T (K) @ t=1640           T (K) @ t=1645           T (K) @ t=1650           T (K) @ t=1655           T (K) @ t=1660           T (K) @ t=1665           T (K) @ t=1670           T (K) @ t=1675           T (K) @ t=1680           T (K) @ t=1685           T (K) @ t=1690           T (K) @ t=1695           T (K) @ t=1700           T (K) @ t=1705           T (K) @ t=1710           T (K) @ t=1715           T (K) @ t=1720           T (K) @ t=1725           T (K) @ t=1730           T (K) @ t=1735           T (K) @ t=1740           T (K) @ t=1745           T (K) @ t=1750           T (K) @ t=1755           T (K) @ t=1760           T (K) @ t=1765           T (K) @ t=1770           T (K) @ t=1775           T (K) @ t=1780           T (K) @ t=1785           T (K) @ t=1790           T (K) @ t=1795           T (K) @ t=1800           T (K) @ t=1805           T (K) @ t=1810           T (K) @ t=1815           T (K) @ t=1820           T (K) @ t=1825           T (K) @ t=1830           T (K) @ t=1835           T (K) @ t=1840           T (K) @ t=1845           T (K) @ t=1850           T (K) @ t=1855           T (K) @ t=1860           T (K) @ t=1865           T (K) @ t=1870           T (K) @ t=1875           T (K) @ t=1880           T (K) @ t=1885           T (K) @ t=1890           T (K) @ t=1895           T (K) @ t=1900           T (K) @ t=1905           T (K) @ t=1910           T (K) @ t=1915           T (K) @ t=1920           T (K) @ t=1925           T (K) @ t=1930           T (K) @ t=1935           T (K) @ t=1940           T (K) @ t=1945           T (K) @ t=1950           T (K) @ t=1955           T (K) @ t=1960           T (K) @ t=1965           T (K) @ t=1970           T (K) @ t=1975           T (K) @ t=1980           T (K) @ t=1985           T (K) @ t=1990           T (K) @ t=1995           T (K) @ t=2000
0                         0                        0                        323.15                   323.1500000000001        323.1500000000001        323.1500000000001        323.1500000000001        323.1500000000001        323.1500000000001        323.1500000000001        323.1500000000001        323.1500000000001        323.1500000000001        323.1500000000001        323.1500000000001        323.1500000000001        323.1500000000001        323.1500000000001        323.1500000000001        323.1500000000001        323.1500000000001        323.1500000000001        323.1500000000001        323.1500000000001        323.1500000000001        323.1500000000001        323.1500000000001        323.1500000000001        323.1500000000001        323.1500000000001        323.1500000000001        323.1500000000001        323.1500000000001        323.1500000000001        323.1500000000001        323.1500000000001        323.1500000000001        323.1500000000001        323.1500000000001        323.1500000000001        323.1500000000001        323.1500000000001        323.1500000000001        323.1500000000001        323.1500000000001        323.1500000000001        323.1500000000001        323.1500000000001        323.1500000000001        323.1500000000001        323.1500000000001        323.1500000000001        323.1500000000001        323.1500000000001        323.1500000000001        323.1500000000001        323.1500000000001        323.1500000000001        323.1500000000001        323.1500000000001        323.1500000000001        323.1500000000001        323.1500000000001        323.1500000000001        323.1500000000001        323.1500000000001        323.1500000000001        323.1500000000001        323.1500000000001        323.1500000000001        323.1500000000001        323.1500000000001        323.1500000000001        323.1500000000001        323.1500000000001        323.1500000000001        323.1500000000001        323.1500000000001        323.1500000000001        323.1500000000001        323.1500000000001        323.1500000000001        323.1500000000001        323.1500000000001        323.1500000000001        323.1500000000001        323.1500000000001        323.1500000000001        323.1500000000001        323.1500000000001        323.1500000000001        323.1500000000001        323.1500000000001        323.1500000000001        323.1500000000001        323.1500000000001        323.1500000000001        323.1500000000001        323.1500000000001        323.1500000000001        323.1500000000001        323.1500000000001        323.1500000000001        323.1500000000001        323.1500000000001        323.1500000000001        323.1500000000001        323.1500000000001        323.1500000000001        323.1500000000001        323.1500000000001        323.1500000000001        323.1500000000001        323.1500000000001        323.1500000000001        323.1500000000001        323.1500000000001        323.1500000000001        323.1500000000001        323.1500000000001        323.1500000000001        323.1500000000001        323.1500000000001        323.1500000000001        323.1500000000001        323.1500000000001        323.1500000000001        323.1500000000001        323.1500000000001        323.1500000000001        323.1500000000001        323.1500000000001        323.1500000000001        323.1500000000001        323.1500000000001        323.1500000000001        323.1500000000001        323.1500000000001        323.1500000000001        323.1500000000001        323.1500000000001        323.1500000000001        323.1500000000001        323.1500000000001        323.1500000000001        323.1500000000001        323.1500000000001        323.1500000000001        323.1500000000001        323.1500000000001        323.1500000000001        323.1500000000001        323.1500000000001        323.1500000000001        323.1500000000001        323.1500000000001        323.1500000000001        323.1500000000001        323.1500000000001        323.1500000000001        323.1500000000001        323.1500000000001        323.1500000000001        323.1500000000001        323.1500000000001        323.1500000000001        323.1500000000001        323.1500000000001        323.1500000000001        323.1500000000001        323.1500000000001        323.1500000000001        323.1500000000001        323.1500000000001        323.1500000000001        323.1500000000001        323.1500000000001        323.1500000000001        323.1500000000001        323.1500000000001        323.1500000000001        323.1500000000001        323.1500000000001        323.1500000000001        323.1500000000001        323.1500000000001        323.1500000000001        323.1500000000001        323.1500000000001        323.1500000000001        323.1500000000001        323.1500000000001        323.1500000000001        323.1500000000001        323.1500000000001        323.1500000000001        323.1500000000001        323.1500000000001        323.1500000000001        323.1500000000001        323.1500000000001        323.1500000000001        323.1500000000001        323.1500000000001        323.1500000000001        323.1500000000001        323.1500000000001        323.1500000000001        323.1500000000001        323.1500000000001        323.1500000000001        323.1500000000001        323.1500000000001        323.1500000000001        323.1500000000001        323.1500000000001        323.1500000000001        323.1500000000001        323.1500000000001        323.1500000000001        323.1500000000001        323.1500000000001        323.1500000000001        323.1500000000001        323.1500000000001        323.1500000000001        323.1500000000001        323.1500000000001        323.1500000000001        323.1500000000001        323.1500000000001        323.1500000000001        323.1500000000001        323.1500000000001        323.1500000000001        323.1500000000001        323.1500000000001        323.1500000000001        323.1500000000001        323.1500000000001        323.1500000000001        323.1500000000001        323.1500000000001        323.1500000000001        323.1500000000001        323.1500000000001        323.1500000000001        323.1500000000001        323.1500000000001        323.1500000000001        323.1500000000001        323.1500000000001        323.1500000000001        323.1500000000001        323.1500000000001        323.1500000000001        323.1500000000001        323.1500000000001        323.1500000000001        323.1500000000001        323.1500000000001        323.1500000000001        323.1500000000001        323.1500000000001        323.1500000000001        323.1500000000001        323.1500000000001        323.1500000000001        323.1500000000001        323.1500000000001        323.1500000000001        323.1500000000001        323.1500000000001        323.1500000000001        323.1500000000001        323.1500000000001        323.1500000000001        323.1500000000001        323.1500000000001        323.1500000000001        323.1500000000001        323.1500000000001        323.1500000000001        323.1500000000001        323.1500000000001        323.1500000000001        323.1500000000001        323.1500000000001        323.1500000000001        323.1500000000001        323.1500000000001        323.1500000000001        323.1500000000001        323.1500000000001        323.1500000000001        323.1500000000001        323.1500000000001        323.1500000000001        323.1500000000001        323.1500000000001        323.1500000000001        323.1500000000001        323.1500000000001        323.1500000000001        323.1500000000001        323.1500000000001        323.1500000000001        323.1500000000001        323.1500000000001        323.1500000000001        323.1500000000001        323.1500000000001        323.1500000000001        323.1500000000001        323.1500000000001        323.1500000000001        323.1500000000001        323.1500000000001        323.1500000000001        323.1500000000001        323.1500000000001        323.1500000000001        323.1500000000001        323.1500000000001        323.1500000000001        323.1500000000001        323.1500000000001        323.1500000000001        323.1500000000001        323.1500000000001        323.1500000000001        323.1500000000001        323.1500000000001        323.1500000000001        323.1500000000001        323.1500000000001        323.1500000000001        323.1500000000001        323.1500000000001        323.1500000000001        323.1500000000001        323.1500000000001        323.1500000000001        323.1500000000001        323.1500000000001        323.1500000000001        323.1500000000001        323.1500000000001        323.1500000000001        323.1500000000001        323.1500000000001        323.1500000000001        323.1500000000001        323.1500000000001        323.1500000000001        323.1500000000001        323.1500000000001        323.1500000000001        323.1500000000001        323.1500000000001        323.1500000000001        323.1500000000001        323.1500000000001        323.1500000000001        323.1500000000001        323.1500000000001        323.1500000000001        323.1500000000001        323.1500000000001        323.1500000000001        323.1500000000001        323.1500000000001        323.1500000000001        323.1500000000001        323.1500000000001        323.1500000000001        323.1500000000001        323.1500000000001        323.1500000000001        323.1500000000001        323.1500000000001        323.1500000000001        323.1500000000001        323.1500000000001        323.1500000000001        323.1500000000001        323.1500000000001        323.1500000000001        323.1500000000001        323.1500000000001        323.1500000000001        323.1500000000001        323.1500000000001        323.1500000000001        323.1500000000001        323.1500000000001        323.1500000000001        323.1500000000001        323.1500000000001        323.1500000000001        323.1500000000001        323.1500000000001        323.1500000000001